Program Version,EnergyPlus, Version 24.2.0-94a887817b, YMD=2025.03.06 13:35
1,5,Environment Title[],Latitude[deg],Longitude[deg],Time Zone[],Elevation[m]
2,8,Day of Simulation[],Month[],Day of Month[],DST Indicator[1=yes 0=no],Hour[],StartMinute[],EndMinute[],DayType
3,5,Cumulative Day of Simulation[],Month[],Day of Month[],DST Indicator[1=yes 0=no],DayType  ! When Daily Report Variables Requested
4,2,Cumulative Days of Simulation[],Month[]  ! When Monthly Report Variables Requested
5,1,Cumulative Days of Simulation[] ! When Run Period Report Variables Requested
6,1,Calendar Year of Simulation[] ! When Annual Report Variables Requested
7,1,Environment,Site Outdoor Air Drybulb Temperature [C] !Hourly
8,1,Environment,Site Outdoor Air Dewpoint Temperature [C] !Hourly
9,1,Environment,Site Outdoor Air Wetbulb Temperature [C] !Hourly
10,1,Environment,Site Outdoor Air Humidity Ratio [kgWater/kgDryAir] !Hourly
11,1,Environment,Site Outdoor Air Relative Humidity [%] !Hourly
12,1,DATA CENTER SERVERS,ITE CPU Electricity Rate [W] !Hourly
13,1,DATA CENTER SERVERS,ITE Fan Electricity Rate [W] !Hourly
14,1,DATA CENTER SERVERS,ITE UPS Electricity Rate [W] !Hourly
15,1,DATA CENTER SERVERS,ITE CPU Electricity Rate at Design Inlet Conditions [W] !Hourly
16,1,DATA CENTER SERVERS,ITE Fan Electricity Rate at Design Inlet Conditions [W] !Hourly
17,1,DATA CENTER SERVERS,ITE UPS Heat Gain to Zone Rate [W] !Hourly
18,1,DATA CENTER SERVERS,ITE Total Heat Gain to Zone Rate [W] !Hourly
214,1,DATA CENTER SERVERS,ITE Standard Density Air Volume Flow Rate [m3/s] !Hourly
215,1,DATA CENTER SERVERS,ITE Air Mass Flow Rate [kg/s] !Hourly
216,1,DATA CENTER SERVERS,ITE Air Inlet Dry-Bulb Temperature [C] !Hourly
217,1,DATA CENTER SERVERS,ITE Air Inlet Dewpoint Temperature [C] !Hourly
218,1,DATA CENTER SERVERS,ITE Air Inlet Relative Humidity [%] !Hourly
219,1,DATA CENTER SERVERS,ITE Air Outlet Dry-Bulb Temperature [C] !Hourly
220,1,DATA CENTER SERVERS,ITE Supply Heat Index [] !Hourly
221,1,DATA CENTER SERVERS,ITE Air Inlet Operating Range Exceeded Time [hr] !Hourly
222,1,DATA CENTER SERVERS,ITE Air Inlet Dry-Bulb Temperature Above Operating Range Time [hr] !Hourly
223,1,DATA CENTER SERVERS,ITE Air Inlet Dry-Bulb Temperature Below Operating Range Time [hr] !Hourly
224,1,DATA CENTER SERVERS,ITE Air Inlet Dewpoint Temperature Above Operating Range Time [hr] !Hourly
225,1,DATA CENTER SERVERS,ITE Air Inlet Dewpoint Temperature Below Operating Range Time [hr] !Hourly
226,1,DATA CENTER SERVERS,ITE Air Inlet Relative Humidity Above Operating Range Time [hr] !Hourly
227,1,DATA CENTER SERVERS,ITE Air Inlet Relative Humidity Below Operating Range Time [hr] !Hourly
228,1,DATA CENTER SERVERS,ITE Air Inlet Dry-Bulb Temperature Difference Above Operating Range [deltaC] !Hourly
229,1,DATA CENTER SERVERS,ITE Air Inlet Dry-Bulb Temperature Difference Below Operating Range [deltaC] !Hourly
230,1,DATA CENTER SERVERS,ITE Air Inlet Dewpoint Temperature Difference Above Operating Range [deltaC] !Hourly
231,1,DATA CENTER SERVERS,ITE Air Inlet Dewpoint Temperature Difference Below Operating Range [deltaC] !Hourly
232,1,DATA CENTER SERVERS,ITE Air Inlet Relative Humidity Difference Above Operating Range [%] !Hourly
233,1,DATA CENTER SERVERS,ITE Air Inlet Relative Humidity Difference Below Operating Range [%] !Hourly
234,1,MAIN ZONE,Zone ITE Adjusted Return Air Temperature [C] !Hourly
235,1,EMS,CRAC total system Power [W] !Hourly
236,1,EMS,CRAC Net Sensible Capacity [W] !Hourly
237,1,EMS,CRAC SCOP [] !Hourly
238,1,EMS,PUE [] !Hourly
239,1,MAIN ZONE,Zone Mean Air Temperature [C] !Hourly
240,1,MAIN ZONE,Zone Air Heat Balance Internal Convective Heat Gain Rate [W] !Hourly
241,1,MAIN ZONE,Zone Air Heat Balance Surface Convection Rate [W] !Hourly
242,1,MAIN ZONE,Zone Air Heat Balance Interzone Air Transfer Rate [W] !Hourly
243,1,MAIN ZONE,Zone Air Heat Balance Outdoor Air Transfer Rate [W] !Hourly
244,1,MAIN ZONE,Zone Air Heat Balance System Air Transfer Rate [W] !Hourly
245,1,MAIN ZONE,Zone Air Heat Balance System Convective Heat Gain Rate [W] !Hourly
246,1,MAIN ZONE,Zone Air Heat Balance Air Energy Storage Rate [W] !Hourly
247,1,MAIN ZONE,Zone Air Temperature [C] !Hourly
382,1,MAIN ZONE,Zone Predicted Sensible Load to Cooling Setpoint Heat Transfer Rate [W] !Hourly
445,1,MAIN ZONE BASEBOARD,Baseboard Electricity Rate [W] !Hourly
446,1,EC PLUG FAN 1,Fan Electricity Rate [W] !Hourly
447,1,EC PLUG FAN 1,Fan Rise in Air Temperature [deltaC] !Hourly
473,1,DX COOLING COIL SYSTEM 1,Coil System Part Load Ratio [] !Hourly
474,1,DX COOLING COIL SYSTEM 1,Coil System Frost Control Status [] !Hourly
475,1,MAIN COOLING COIL 1,Cooling Coil Total Cooling Rate [W] !Hourly
489,1,MAIN COOLING COIL 1,Cooling Coil Sensible Cooling Rate [W] !Hourly
490,1,MAIN COOLING COIL 1,Cooling Coil Latent Cooling Rate [W] !Hourly
491,1,MAIN COOLING COIL 1,Cooling Coil Electricity Rate [W] !Hourly
517,1,MAIN COOLING COIL 1,Cooling Coil Runtime Fraction [] !Hourly
665,1,Whole Building,Facility Total Building Electricity Demand Rate [W] !Hourly
666,1,Whole Building,Facility Total HVAC Electricity Demand Rate [W] !Hourly
667,1,Whole Building,Facility Total Electricity Demand Rate [W] !Hourly
669,1,SYSTEM AVAILABILITY SCHEDULE,Schedule Value [] !Hourly
670,1,ZONE CONTROL TYPE SCHED,Schedule Value [] !Hourly
671,1,HEATING SETPOINT SCHEDULE,Schedule Value [] !Hourly
672,1,SUPPLY AIR SETPOINT SCHEDULE,Schedule Value [] !Hourly
673,1,COOLING RETURN AIR SETPOINT SCHEDULE,Schedule Value [] !Hourly
674,1,DATA CENTER CPU LOADING SCHEDULE,Schedule Value [] !Hourly
675,1,DATA CENTER OPERATION SCHEDULE,Schedule Value [] !Hourly
676,1,LIEBERT ECONOPHASE QUADRATIC FIT,Performance Curve Input Variable 1 Value [] !Hourly
677,1,LIEBERT ECONOPHASE QUADRATIC FIT,Performance Curve Input Variable 2 Value [] !Hourly
678,1,LIEBERT ECONOPHASE QUADRATIC FIT,Performance Curve Output Value [] !Hourly
679,1,DATA CENTER SERVERS POWER FLOADTEMP,Performance Curve Input Variable 1 Value [] !Hourly
680,1,DATA CENTER SERVERS POWER FLOADTEMP,Performance Curve Input Variable 2 Value [] !Hourly
681,1,DATA CENTER SERVERS POWER FLOADTEMP,Performance Curve Output Value [] !Hourly
682,1,DATA CENTER SERVERS AIRFLOW FLOADTEMP,Performance Curve Input Variable 1 Value [] !Hourly
683,1,DATA CENTER SERVERS AIRFLOW FLOADTEMP,Performance Curve Input Variable 2 Value [] !Hourly
684,1,DATA CENTER SERVERS AIRFLOW FLOADTEMP,Performance Curve Output Value [] !Hourly
685,1,DATA CENTER RECIRCULATION FLOADTEMP,Performance Curve Input Variable 1 Value [] !Hourly
686,1,DATA CENTER RECIRCULATION FLOADTEMP,Performance Curve Input Variable 2 Value [] !Hourly
687,1,DATA CENTER RECIRCULATION FLOADTEMP,Performance Curve Output Value [] !Hourly
688,1,HPACCOOLCAPFFF,Performance Curve Input Variable 1 Value [] !Hourly
689,1,HPACCOOLCAPFFF,Performance Curve Output Value [] !Hourly
690,1,HPACCOOLEIRFFF,Performance Curve Input Variable 1 Value [] !Hourly
691,1,HPACCOOLEIRFFF,Performance Curve Output Value [] !Hourly
692,1,HPACCOOLPLFFPLR,Performance Curve Input Variable 1 Value [] !Hourly
693,1,HPACCOOLPLFFPLR,Performance Curve Output Value [] !Hourly
694,1,ECM FANPOWER FFLOW,Performance Curve Input Variable 1 Value [] !Hourly
695,1,ECM FANPOWER FFLOW,Performance Curve Output Value [] !Hourly
696,1,UPS EFFICIENCY FPLR,Performance Curve Input Variable 1 Value [] !Hourly
697,1,UPS EFFICIENCY FPLR,Performance Curve Output Value [] !Hourly
698,1,COOL CAP MOD FUNC OF TEMPERATURE,Performance Curve Input Variable 1 Value [] !Hourly
699,1,COOL CAP MOD FUNC OF TEMPERATURE,Performance Curve Input Variable 2 Value [] !Hourly
700,1,COOL CAP MOD FUNC OF TEMPERATURE,Performance Curve Output Value [] !Hourly
701,1,LIEBERT ECONOPHASE EIR FUNC T,Performance Curve Input Variable 1 Value [] !Hourly
702,1,LIEBERT ECONOPHASE EIR FUNC T,Performance Curve Input Variable 2 Value [] !Hourly
703,1,LIEBERT ECONOPHASE EIR FUNC T,Performance Curve Output Value [] !Hourly
704,1,SUPPLY INLET NODE,System Node Temperature [C] !Hourly
705,1,SUPPLY INLET NODE,System Node Mass Flow Rate [kg/s] !Hourly
706,1,SUPPLY INLET NODE,System Node Humidity Ratio [kgWater/kgDryAir] !Hourly
707,1,SUPPLY INLET NODE,System Node Setpoint Temperature [C] !Hourly
708,1,SUPPLY INLET NODE,System Node Relative Humidity [%] !Hourly
709,1,SUPPLY INLET NODE,System Node Standard Density Volume Flow Rate [m3/s] !Hourly
710,1,SUPPLY INLET NODE,System Node Dewpoint Temperature [C] !Hourly
711,1,MAIN COOLING COIL 1 OUTLET NODE,System Node Temperature [C] !Hourly
712,1,MAIN COOLING COIL 1 OUTLET NODE,System Node Mass Flow Rate [kg/s] !Hourly
713,1,MAIN COOLING COIL 1 OUTLET NODE,System Node Humidity Ratio [kgWater/kgDryAir] !Hourly
714,1,MAIN COOLING COIL 1 OUTLET NODE,System Node Setpoint Temperature [C] !Hourly
715,1,MAIN COOLING COIL 1 OUTLET NODE,System Node Standard Density Volume Flow Rate [m3/s] !Hourly
716,1,MAIN COOLING COIL 1 OUTLET NODE,System Node Dewpoint Temperature [C] !Hourly
717,1,SUPPLY OUTLET NODE,System Node Temperature [C] !Hourly
718,1,SUPPLY OUTLET NODE,System Node Mass Flow Rate [kg/s] !Hourly
719,1,SUPPLY OUTLET NODE,System Node Humidity Ratio [kgWater/kgDryAir] !Hourly
720,1,SUPPLY OUTLET NODE,System Node Setpoint Temperature [C] !Hourly
721,1,SUPPLY OUTLET NODE,System Node Standard Density Volume Flow Rate [m3/s] !Hourly
722,1,MAIN ZONE NODE,System Node Temperature [C] !Hourly
723,1,MAIN ZONE NODE,System Node Mass Flow Rate [kg/s] !Hourly
724,1,MAIN ZONE NODE,System Node Humidity Ratio [kgWater/kgDryAir] !Hourly
725,1,MAIN ZONE NODE,System Node Setpoint Temperature [C] !Hourly
726,1,MAIN ZONE NODE,System Node Standard Density Volume Flow Rate [m3/s] !Hourly
727,1,MAIN ZONE INLET NODE,System Node Temperature [C] !Hourly
728,1,MAIN ZONE INLET NODE,System Node Mass Flow Rate [kg/s] !Hourly
729,1,MAIN ZONE INLET NODE,System Node Humidity Ratio [kgWater/kgDryAir] !Hourly
730,1,MAIN ZONE INLET NODE,System Node Setpoint Temperature [C] !Hourly
731,1,MAIN ZONE INLET NODE,System Node Standard Density Volume Flow Rate [m3/s] !Hourly
732,1,MAIN ZONE OUTLET NODE,System Node Temperature [C] !Hourly
733,1,MAIN ZONE OUTLET NODE,System Node Mass Flow Rate [kg/s] !Hourly
734,1,MAIN ZONE OUTLET NODE,System Node Humidity Ratio [kgWater/kgDryAir] !Hourly
735,1,MAIN ZONE OUTLET NODE,System Node Setpoint Temperature [C] !Hourly
736,1,MAIN ZONE OUTLET NODE,System Node Standard Density Volume Flow Rate [m3/s] !Hourly
737,1,ZONE EQUIPMENT INLET NODE,System Node Temperature [C] !Hourly
738,1,ZONE EQUIPMENT INLET NODE,System Node Mass Flow Rate [kg/s] !Hourly
739,1,ZONE EQUIPMENT INLET NODE,System Node Humidity Ratio [kgWater/kgDryAir] !Hourly
740,1,ZONE EQUIPMENT INLET NODE,System Node Setpoint Temperature [C] !Hourly
741,1,ZONE EQUIPMENT INLET NODE,System Node Standard Density Volume Flow Rate [m3/s] !Hourly
742,1,ZONE EQUIPMENT OUTLET NODE,System Node Temperature [C] !Hourly
743,1,ZONE EQUIPMENT OUTLET NODE,System Node Mass Flow Rate [kg/s] !Hourly
744,1,ZONE EQUIPMENT OUTLET NODE,System Node Humidity Ratio [kgWater/kgDryAir] !Hourly
745,1,ZONE EQUIPMENT OUTLET NODE,System Node Setpoint Temperature [C] !Hourly
746,1,ZONE EQUIPMENT OUTLET NODE,System Node Standard Density Volume Flow Rate [m3/s] !Hourly
747,1,MAIN ZONE ATU IN NODE,System Node Temperature [C] !Hourly
748,1,MAIN ZONE ATU IN NODE,System Node Mass Flow Rate [kg/s] !Hourly
749,1,MAIN ZONE ATU IN NODE,System Node Humidity Ratio [kgWater/kgDryAir] !Hourly
750,1,MAIN ZONE ATU IN NODE,System Node Setpoint Temperature [C] !Hourly
751,1,MAIN ZONE ATU IN NODE,System Node Standard Density Volume Flow Rate [m3/s] !Hourly
End of Data Dictionary
1,DENVER CENTENNIAL ANN HTG 99.6% CONDNS DB,  37.62,-122.40,  -8.00,   2.00
2,1,12,21, 0, 1, 0.00,60.00,WinterDesignDay
7,-18.8
8,-18.8
9,-18.8
10,0.0007118208673643848
11,100.0
12,48538.68281570036
13,38536.25600290022
14,8707.493881860057
15,30001.499999999996
16,20000.0
17,8707.493881860057
18,95782.43270046062
214,9.48510969831469
215,11.420292035213992
216,24.26812800145011
217,-18.802687632739666
218,3.8163617084578765
219,31.846007034826396
220,0.20881449776412372
221,0.9999999999999999
222,0.0
223,0.0
224,0.0
225,0.9999999999999999
226,0.0
227,0.9999999999999999
228,0.0
229,0.0
230,0.0
231,-6.802687632739669
232,0.0
233,-4.183638291542124
234,30.846007034826396
235,6828.070636250547
236,88328.73176910578
237,12.936118630666238
238,1.0712872960494113
239,30.846007034826403
240,95782.43270046062
241,-7453.700931354898
242,0.0
243,0.0
244,-88328.73176910577
245,0.0
246,0.0
247,30.846007034826403
382,-88328.73176910577
445,0.0
446,5915.340422099998
447,0.5744571847205222
473,0.6303128870561737
474,0.0
475,94244.07219120576
489,94244.07219120576
490,0.0
491,912.7302141505476
517,0.6673177001541172
665,95782.43270046065
666,6828.070636250547
667,102610.50333671119
669,1.0
670,4.0
671,15.0
672,10.0
673,29.3
674,1.0
675,1.0
676,-999.0
677,-999.0
678,-999.0
679,1.0
680,15.0
681,1.0000499999999999
682,1.0
683,15.0
684,1.0
685,-999.0
686,-999.0
687,-999.0
688,1.0411162204876847
689,1.008223244097537
690,1.0411162204876847
691,0.9946817227642378
692,0.6303128870561737
693,0.944546933058426
694,1.0
695,1.0
696,1.7414987763720118
697,1.0
698,15.994746197532033
699,-18.8
700,1.0
701,16.01102199526721
702,-18.8
703,0.04200000000000001
704,30.846007034826403
705,10.234197113879107
706,0.0007116387581182995
707,-999.0
708,2.5977197002530104
709,8.5
710,-18.802687632739666
711,21.69367081672959
712,10.234197113879107
713,0.0007116387581182995
714,21.69367081672959
715,8.5
716,-18.802687632739666
717,22.26812800145011
718,10.234197113879107
719,0.0007116387581182995
720,22.26812800145011
721,8.5
722,30.846007034826403
723,10.234197113879107
724,0.0007116387581182995
725,29.3
726,8.5
727,22.26812800145011
728,10.234197113879107
729,0.0007116387581182995
730,-999.0
731,8.5
732,30.846007034826403
733,10.234197113879107
734,0.0007116387581182995
735,-999.0
736,8.5
737,22.26812800145011
738,10.234197113879107
739,0.0007116387581182995
740,-999.0
741,8.5
742,30.846007034826403
743,10.234197113879107
744,0.0007116387581182995
745,-999.0
746,8.5
747,22.26812800145011
748,10.234197113879107
749,0.0007116387581182995
750,-999.0
751,8.5
2,1,12,21, 0, 2, 0.00,60.00,WinterDesignDay
7,-18.8
8,-18.8
9,-18.8
10,0.0007118208673643848
11,100.0
12,48538.68281570036
13,38536.25600290022
14,8707.493881860057
15,30001.499999999996
16,20000.0
17,8707.493881860057
18,95782.43270046062
214,9.48510969831469
215,11.420292035213992
216,24.26812800145011
217,-18.802687632739666
218,3.8163617084578765
219,31.846007034826396
220,0.20881449776412372
221,0.9999999999999999
222,0.0
223,0.0
224,0.0
225,0.9999999999999999
226,0.0
227,0.9999999999999999
228,0.0
229,0.0
230,0.0
231,-6.802687632739669
232,0.0
233,-4.183638291542124
234,30.846007034826396
235,6828.070636250547
236,88328.73176910578
237,12.936118630666238
238,1.0712872960494113
239,30.846007034826403
240,95782.43270046062
241,-7453.700931354898
242,0.0
243,0.0
244,-88328.73176910577
245,0.0
246,0.0
247,30.846007034826403
382,-88328.73176910577
445,0.0
446,5915.340422099998
447,0.5744571847205222
473,0.6303128870561737
474,0.0
475,94244.07219120576
489,94244.07219120576
490,0.0
491,912.7302141505476
517,0.6673177001541172
665,95782.43270046065
666,6828.070636250547
667,102610.50333671119
669,1.0
670,4.0
671,15.0
672,10.0
673,29.3
674,1.0
675,1.0
676,-999.0
677,-999.0
678,-999.0
679,1.0
680,15.0
681,1.0000499999999999
682,1.0
683,15.0
684,1.0
685,-999.0
686,-999.0
687,-999.0
688,1.0411162204876847
689,1.008223244097537
690,1.0411162204876847
691,0.9946817227642378
692,0.6303128870561737
693,0.944546933058426
694,1.0
695,1.0
696,1.7414987763720118
697,1.0
698,15.994746197532033
699,-18.8
700,1.0
701,16.01102199526721
702,-18.8
703,0.04200000000000001
704,30.846007034826403
705,10.234197113879107
706,0.0007116387581182995
707,-999.0
708,2.5977197002530104
709,8.5
710,-18.802687632739666
711,21.69367081672959
712,10.234197113879107
713,0.0007116387581182995
714,21.69367081672959
715,8.5
716,-18.802687632739666
717,22.26812800145011
718,10.234197113879107
719,0.0007116387581182995
720,22.26812800145011
721,8.5
722,30.846007034826403
723,10.234197113879107
724,0.0007116387581182995
725,29.3
726,8.5
727,22.26812800145011
728,10.234197113879107
729,0.0007116387581182995
730,-999.0
731,8.5
732,30.846007034826403
733,10.234197113879107
734,0.0007116387581182995
735,-999.0
736,8.5
737,22.26812800145011
738,10.234197113879107
739,0.0007116387581182995
740,-999.0
741,8.5
742,30.846007034826403
743,10.234197113879107
744,0.0007116387581182995
745,-999.0
746,8.5
747,22.26812800145011
748,10.234197113879107
749,0.0007116387581182995
750,-999.0
751,8.5
2,1,12,21, 0, 3, 0.00,60.00,WinterDesignDay
7,-18.8
8,-18.8
9,-18.8
10,0.0007118208673643848
11,100.0
12,48538.68281570036
13,38536.25600290022
14,8707.493881860057
15,30001.499999999996
16,20000.0
17,8707.493881860057
18,95782.43270046062
214,9.48510969831469
215,11.420292035213992
216,24.26812800145011
217,-18.802687632739666
218,3.8163617084578765
219,31.846007034826396
220,0.20881449776412372
221,0.9999999999999999
222,0.0
223,0.0
224,0.0
225,0.9999999999999999
226,0.0
227,0.9999999999999999
228,0.0
229,0.0
230,0.0
231,-6.802687632739669
232,0.0
233,-4.183638291542124
234,30.846007034826396
235,6828.070636250547
236,88328.73176910578
237,12.936118630666238
238,1.0712872960494113
239,30.846007034826403
240,95782.43270046062
241,-7453.700931354898
242,0.0
243,0.0
244,-88328.73176910577
245,0.0
246,0.0
247,30.846007034826403
382,-88328.73176910577
445,0.0
446,5915.340422099998
447,0.5744571847205222
473,0.6303128870561737
474,0.0
475,94244.07219120576
489,94244.07219120576
490,0.0
491,912.7302141505476
517,0.6673177001541172
665,95782.43270046065
666,6828.070636250547
667,102610.50333671119
669,1.0
670,4.0
671,15.0
672,10.0
673,29.3
674,1.0
675,1.0
676,-999.0
677,-999.0
678,-999.0
679,1.0
680,15.0
681,1.0000499999999999
682,1.0
683,15.0
684,1.0
685,-999.0
686,-999.0
687,-999.0
688,1.0411162204876847
689,1.008223244097537
690,1.0411162204876847
691,0.9946817227642378
692,0.6303128870561737
693,0.944546933058426
694,1.0
695,1.0
696,1.7414987763720118
697,1.0
698,15.994746197532033
699,-18.8
700,1.0
701,16.01102199526721
702,-18.8
703,0.04200000000000001
704,30.846007034826403
705,10.234197113879107
706,0.0007116387581182995
707,-999.0
708,2.5977197002530104
709,8.5
710,-18.802687632739666
711,21.69367081672959
712,10.234197113879107
713,0.0007116387581182995
714,21.69367081672959
715,8.5
716,-18.802687632739666
717,22.26812800145011
718,10.234197113879107
719,0.0007116387581182995
720,22.26812800145011
721,8.5
722,30.846007034826403
723,10.234197113879107
724,0.0007116387581182995
725,29.3
726,8.5
727,22.26812800145011
728,10.234197113879107
729,0.0007116387581182995
730,-999.0
731,8.5
732,30.846007034826403
733,10.234197113879107
734,0.0007116387581182995
735,-999.0
736,8.5
737,22.26812800145011
738,10.234197113879107
739,0.0007116387581182995
740,-999.0
741,8.5
742,30.846007034826403
743,10.234197113879107
744,0.0007116387581182995
745,-999.0
746,8.5
747,22.26812800145011
748,10.234197113879107
749,0.0007116387581182995
750,-999.0
751,8.5
2,1,12,21, 0, 4, 0.00,60.00,WinterDesignDay
7,-18.8
8,-18.8
9,-18.8
10,0.0007118208673643848
11,100.0
12,48538.68281570036
13,38536.25600290022
14,8707.493881860057
15,30001.499999999996
16,20000.0
17,8707.493881860057
18,95782.43270046062
214,9.48510969831469
215,11.420292035213992
216,24.26812800145011
217,-18.802687632739666
218,3.8163617084578765
219,31.846007034826396
220,0.20881449776412372
221,0.9999999999999999
222,0.0
223,0.0
224,0.0
225,0.9999999999999999
226,0.0
227,0.9999999999999999
228,0.0
229,0.0
230,0.0
231,-6.802687632739669
232,0.0
233,-4.183638291542124
234,30.846007034826396
235,6828.070636250547
236,88328.73176910578
237,12.936118630666238
238,1.0712872960494113
239,30.846007034826403
240,95782.43270046062
241,-7453.700931354898
242,0.0
243,0.0
244,-88328.73176910577
245,0.0
246,0.0
247,30.846007034826403
382,-88328.73176910577
445,0.0
446,5915.340422099998
447,0.5744571847205222
473,0.6303128870561737
474,0.0
475,94244.07219120576
489,94244.07219120576
490,0.0
491,912.7302141505476
517,0.6673177001541172
665,95782.43270046065
666,6828.070636250547
667,102610.50333671119
669,1.0
670,4.0
671,15.0
672,10.0
673,29.3
674,1.0
675,1.0
676,-999.0
677,-999.0
678,-999.0
679,1.0
680,15.0
681,1.0000499999999999
682,1.0
683,15.0
684,1.0
685,-999.0
686,-999.0
687,-999.0
688,1.0411162204876847
689,1.008223244097537
690,1.0411162204876847
691,0.9946817227642378
692,0.6303128870561737
693,0.944546933058426
694,1.0
695,1.0
696,1.7414987763720118
697,1.0
698,15.994746197532033
699,-18.8
700,1.0
701,16.01102199526721
702,-18.8
703,0.04200000000000001
704,30.846007034826403
705,10.234197113879107
706,0.0007116387581182995
707,-999.0
708,2.5977197002530104
709,8.5
710,-18.802687632739666
711,21.69367081672959
712,10.234197113879107
713,0.0007116387581182995
714,21.69367081672959
715,8.5
716,-18.802687632739666
717,22.26812800145011
718,10.234197113879107
719,0.0007116387581182995
720,22.26812800145011
721,8.5
722,30.846007034826403
723,10.234197113879107
724,0.0007116387581182995
725,29.3
726,8.5
727,22.26812800145011
728,10.234197113879107
729,0.0007116387581182995
730,-999.0
731,8.5
732,30.846007034826403
733,10.234197113879107
734,0.0007116387581182995
735,-999.0
736,8.5
737,22.26812800145011
738,10.234197113879107
739,0.0007116387581182995
740,-999.0
741,8.5
742,30.846007034826403
743,10.234197113879107
744,0.0007116387581182995
745,-999.0
746,8.5
747,22.26812800145011
748,10.234197113879107
749,0.0007116387581182995
750,-999.0
751,8.5
2,1,12,21, 0, 5, 0.00,60.00,WinterDesignDay
7,-18.8
8,-18.8
9,-18.8
10,0.0007118208673643848
11,100.0
12,48538.68281570036
13,38536.25600290022
14,8707.493881860057
15,30001.499999999996
16,20000.0
17,8707.493881860057
18,95782.43270046062
214,9.48510969831469
215,11.420292035213992
216,24.26812800145011
217,-18.802687632739666
218,3.8163617084578765
219,31.846007034826396
220,0.20881449776412372
221,0.9999999999999999
222,0.0
223,0.0
224,0.0
225,0.9999999999999999
226,0.0
227,0.9999999999999999
228,0.0
229,0.0
230,0.0
231,-6.802687632739669
232,0.0
233,-4.183638291542124
234,30.846007034826396
235,6828.070636250547
236,88328.73176910578
237,12.936118630666238
238,1.0712872960494113
239,30.846007034826403
240,95782.43270046062
241,-7453.700931354898
242,0.0
243,0.0
244,-88328.73176910577
245,0.0
246,0.0
247,30.846007034826403
382,-88328.73176910577
445,0.0
446,5915.340422099998
447,0.5744571847205222
473,0.6303128870561737
474,0.0
475,94244.07219120576
489,94244.07219120576
490,0.0
491,912.7302141505476
517,0.6673177001541172
665,95782.43270046065
666,6828.070636250547
667,102610.50333671119
669,1.0
670,4.0
671,15.0
672,10.0
673,29.3
674,1.0
675,1.0
676,-999.0
677,-999.0
678,-999.0
679,1.0
680,15.0
681,1.0000499999999999
682,1.0
683,15.0
684,1.0
685,-999.0
686,-999.0
687,-999.0
688,1.0411162204876847
689,1.008223244097537
690,1.0411162204876847
691,0.9946817227642378
692,0.6303128870561737
693,0.944546933058426
694,1.0
695,1.0
696,1.7414987763720118
697,1.0
698,15.994746197532033
699,-18.8
700,1.0
701,16.01102199526721
702,-18.8
703,0.04200000000000001
704,30.846007034826403
705,10.234197113879107
706,0.0007116387581182995
707,-999.0
708,2.5977197002530104
709,8.5
710,-18.802687632739666
711,21.69367081672959
712,10.234197113879107
713,0.0007116387581182995
714,21.69367081672959
715,8.5
716,-18.802687632739666
717,22.26812800145011
718,10.234197113879107
719,0.0007116387581182995
720,22.26812800145011
721,8.5
722,30.846007034826403
723,10.234197113879107
724,0.0007116387581182995
725,29.3
726,8.5
727,22.26812800145011
728,10.234197113879107
729,0.0007116387581182995
730,-999.0
731,8.5
732,30.846007034826403
733,10.234197113879107
734,0.0007116387581182995
735,-999.0
736,8.5
737,22.26812800145011
738,10.234197113879107
739,0.0007116387581182995
740,-999.0
741,8.5
742,30.846007034826403
743,10.234197113879107
744,0.0007116387581182995
745,-999.0
746,8.5
747,22.26812800145011
748,10.234197113879107
749,0.0007116387581182995
750,-999.0
751,8.5
2,1,12,21, 0, 6, 0.00,60.00,WinterDesignDay
7,-18.8
8,-18.8
9,-18.8
10,0.0007118208673643848
11,100.0
12,48538.68281570036
13,38536.25600290022
14,8707.493881860057
15,30001.499999999996
16,20000.0
17,8707.493881860057
18,95782.43270046062
214,9.48510969831469
215,11.420292035213992
216,24.26812800145011
217,-18.802687632739666
218,3.8163617084578765
219,31.846007034826396
220,0.20881449776412372
221,0.9999999999999999
222,0.0
223,0.0
224,0.0
225,0.9999999999999999
226,0.0
227,0.9999999999999999
228,0.0
229,0.0
230,0.0
231,-6.802687632739669
232,0.0
233,-4.183638291542124
234,30.846007034826396
235,6828.070636250547
236,88328.73176910578
237,12.936118630666238
238,1.0712872960494113
239,30.846007034826403
240,95782.43270046062
241,-7453.700931354898
242,0.0
243,0.0
244,-88328.73176910577
245,0.0
246,0.0
247,30.846007034826403
382,-88328.73176910577
445,0.0
446,5915.340422099998
447,0.5744571847205222
473,0.6303128870561737
474,0.0
475,94244.07219120576
489,94244.07219120576
490,0.0
491,912.7302141505476
517,0.6673177001541172
665,95782.43270046065
666,6828.070636250547
667,102610.50333671119
669,1.0
670,4.0
671,15.0
672,10.0
673,29.3
674,1.0
675,1.0
676,-999.0
677,-999.0
678,-999.0
679,1.0
680,15.0
681,1.0000499999999999
682,1.0
683,15.0
684,1.0
685,-999.0
686,-999.0
687,-999.0
688,1.0411162204876847
689,1.008223244097537
690,1.0411162204876847
691,0.9946817227642378
692,0.6303128870561737
693,0.944546933058426
694,1.0
695,1.0
696,1.7414987763720118
697,1.0
698,15.994746197532033
699,-18.8
700,1.0
701,16.01102199526721
702,-18.8
703,0.04200000000000001
704,30.846007034826403
705,10.234197113879107
706,0.0007116387581182995
707,-999.0
708,2.5977197002530104
709,8.5
710,-18.802687632739666
711,21.69367081672959
712,10.234197113879107
713,0.0007116387581182995
714,21.69367081672959
715,8.5
716,-18.802687632739666
717,22.26812800145011
718,10.234197113879107
719,0.0007116387581182995
720,22.26812800145011
721,8.5
722,30.846007034826403
723,10.234197113879107
724,0.0007116387581182995
725,29.3
726,8.5
727,22.26812800145011
728,10.234197113879107
729,0.0007116387581182995
730,-999.0
731,8.5
732,30.846007034826403
733,10.234197113879107
734,0.0007116387581182995
735,-999.0
736,8.5
737,22.26812800145011
738,10.234197113879107
739,0.0007116387581182995
740,-999.0
741,8.5
742,30.846007034826403
743,10.234197113879107
744,0.0007116387581182995
745,-999.0
746,8.5
747,22.26812800145011
748,10.234197113879107
749,0.0007116387581182995
750,-999.0
751,8.5
2,1,12,21, 0, 7, 0.00,60.00,WinterDesignDay
7,-18.8
8,-18.8
9,-18.8
10,0.0007118208673643848
11,100.0
12,48538.68281570036
13,38536.25600290022
14,8707.493881860057
15,30001.499999999996
16,20000.0
17,8707.493881860057
18,95782.43270046062
214,9.48510969831469
215,11.420292035213992
216,24.26812800145011
217,-18.802687632739666
218,3.8163617084578765
219,31.846007034826396
220,0.20881449776412372
221,0.9999999999999999
222,0.0
223,0.0
224,0.0
225,0.9999999999999999
226,0.0
227,0.9999999999999999
228,0.0
229,0.0
230,0.0
231,-6.802687632739669
232,0.0
233,-4.183638291542124
234,30.846007034826396
235,6828.070636250547
236,88328.73176910578
237,12.936118630666238
238,1.0712872960494113
239,30.846007034826403
240,95782.43270046062
241,-7453.700931354898
242,0.0
243,0.0
244,-88328.73176910577
245,0.0
246,0.0
247,30.846007034826403
382,-88328.73176910577
445,0.0
446,5915.340422099998
447,0.5744571847205222
473,0.6303128870561737
474,0.0
475,94244.07219120576
489,94244.07219120576
490,0.0
491,912.7302141505476
517,0.6673177001541172
665,95782.43270046065
666,6828.070636250547
667,102610.50333671119
669,1.0
670,4.0
671,15.0
672,10.0
673,29.3
674,1.0
675,1.0
676,-999.0
677,-999.0
678,-999.0
679,1.0
680,15.0
681,1.0000499999999999
682,1.0
683,15.0
684,1.0
685,-999.0
686,-999.0
687,-999.0
688,1.0411162204876847
689,1.008223244097537
690,1.0411162204876847
691,0.9946817227642378
692,0.6303128870561737
693,0.944546933058426
694,1.0
695,1.0
696,1.7414987763720118
697,1.0
698,15.994746197532033
699,-18.8
700,1.0
701,16.01102199526721
702,-18.8
703,0.04200000000000001
704,30.846007034826403
705,10.234197113879107
706,0.0007116387581182995
707,-999.0
708,2.5977197002530104
709,8.5
710,-18.802687632739666
711,21.69367081672959
712,10.234197113879107
713,0.0007116387581182995
714,21.69367081672959
715,8.5
716,-18.802687632739666
717,22.26812800145011
718,10.234197113879107
719,0.0007116387581182995
720,22.26812800145011
721,8.5
722,30.846007034826403
723,10.234197113879107
724,0.0007116387581182995
725,29.3
726,8.5
727,22.26812800145011
728,10.234197113879107
729,0.0007116387581182995
730,-999.0
731,8.5
732,30.846007034826403
733,10.234197113879107
734,0.0007116387581182995
735,-999.0
736,8.5
737,22.26812800145011
738,10.234197113879107
739,0.0007116387581182995
740,-999.0
741,8.5
742,30.846007034826403
743,10.234197113879107
744,0.0007116387581182995
745,-999.0
746,8.5
747,22.26812800145011
748,10.234197113879107
749,0.0007116387581182995
750,-999.0
751,8.5
2,1,12,21, 0, 8, 0.00,60.00,WinterDesignDay
7,-18.8
8,-18.8
9,-18.8
10,0.0007118208673643848
11,100.0
12,48538.68281570036
13,38536.25600290022
14,8707.493881860057
15,30001.499999999996
16,20000.0
17,8707.493881860057
18,95782.43270046062
214,9.48510969831469
215,11.420292035213992
216,24.26812800145011
217,-18.802687632739666
218,3.8163617084578765
219,31.846007034826396
220,0.20881449776412372
221,0.9999999999999999
222,0.0
223,0.0
224,0.0
225,0.9999999999999999
226,0.0
227,0.9999999999999999
228,0.0
229,0.0
230,0.0
231,-6.802687632739669
232,0.0
233,-4.183638291542124
234,30.846007034826396
235,6828.070636250547
236,88328.73176910578
237,12.936118630666238
238,1.0712872960494113
239,30.846007034826403
240,95782.43270046062
241,-7453.700931354898
242,0.0
243,0.0
244,-88328.73176910577
245,0.0
246,0.0
247,30.846007034826403
382,-88328.73176910577
445,0.0
446,5915.340422099998
447,0.5744571847205222
473,0.6303128870561737
474,0.0